begin 
comment This RuNNer input is for testing purpose
lattice     100.0        0.0       0.0
lattice       0.0      100.0       0.0
lattice       0.0        0.0     100.0
atom     0.0 0.0 0.0    H    0.118637830    0.000000000    0.000064480   -0.000052276   -0.000029023 
atom     1.0 0.0 0.0    O    0.118637830    0.000000000    0.000064480   -0.000052276   -0.000029023 
atom     1.0 1.0 0.0    H    0.118637830    0.000000000    0.000064480   -0.000052276   -0.000029023 
energy   11.0
charge   0.00000000 
end
